<?xml version="1.0" encoding="UTF-8"?>

<!-- generated on Sun Jan 29 18:11:19 2023 by Eclipse SUMO sumo Version 1.8.0
<configuration xmlns:xsi="http://www.w3.org/2001/XMLSchema-instance" xsi:noNamespaceSchemaLocation="http://sumo.dlr.de/xsd/sumoConfiguration.xsd">

    <input>
        <net-file value="osm.net.xml"/>
        <route-files value="osm.passenger.trips.xml,osm.truck.trips.xml"/>
        <additional-files value="osm.poly.xml"/>
    </input>

    <output>
        <fcd-output value="fcd2.xml"/>
    </output>

    <processing>
        <ignore-route-errors value="true"/>
    </processing>

    <routing>
        <device.rerouting.adaptation-steps value="18"/>
        <device.rerouting.adaptation-interval value="10"/>
    </routing>

    <report>
        <verbose value="true"/>
        <duration-log.statistics value="true"/>
        <no-step-log value="true"/>
    </report>

    <fcd_device>
        <device.fcd.explicit value="veh146"/>
        <device.fcd.radius value="50"/>
    </fcd_device>

    <gui_only>
        <gui-settings-file value="osm.view.xml"/>
    </gui_only>

</configuration>
-->

<fcd-export xmlns:xsi="http://www.w3.org/2001/XMLSchema-instance" xsi:noNamespaceSchemaLocation="http://sumo.dlr.de/xsd/fcd_file.xsd">
    <timestep time="0.00"/>
    <timestep time="1.00"/>
    <timestep time="2.00"/>
    <timestep time="3.00"/>
    <timestep time="4.00"/>
    <timestep time="5.00"/>
    <timestep time="6.00"/>
    <timestep time="7.00"/>
    <timestep time="8.00"/>
    <timestep time="9.00"/>
    <timestep time="10.00"/>
    <timestep time="11.00"/>
    <timestep time="12.00"/>
    <timestep time="13.00"/>
    <timestep time="14.00"/>
    <timestep time="15.00"/>
    <timestep time="16.00"/>
    <timestep time="17.00"/>
    <timestep time="18.00"/>
    <timestep time="19.00"/>
    <timestep time="20.00"/>
    <timestep time="21.00"/>
    <timestep time="22.00"/>
    <timestep time="23.00"/>
    <timestep time="24.00"/>
    <timestep time="25.00"/>
    <timestep time="26.00"/>
    <timestep time="27.00"/>
    <timestep time="28.00"/>
    <timestep time="29.00"/>
    <timestep time="30.00"/>
    <timestep time="31.00"/>
    <timestep time="32.00"/>
    <timestep time="33.00"/>
    <timestep time="34.00"/>
    <timestep time="35.00"/>
    <timestep time="36.00"/>
    <timestep time="37.00"/>
    <timestep time="38.00"/>
    <timestep time="39.00"/>
    <timestep time="40.00"/>
    <timestep time="41.00"/>
    <timestep time="42.00"/>
    <timestep time="43.00"/>
    <timestep time="44.00"/>
    <timestep time="45.00"/>
    <timestep time="46.00"/>
    <timestep time="47.00"/>
    <timestep time="48.00"/>
    <timestep time="49.00"/>
    <timestep time="50.00"/>
    <timestep time="51.00"/>
    <timestep time="52.00"/>
    <timestep time="53.00"/>
    <timestep time="54.00"/>
    <timestep time="55.00"/>
    <timestep time="56.00"/>
    <timestep time="57.00"/>
    <timestep time="58.00"/>
    <timestep time="59.00"/>
    <timestep time="60.00"/>
    <timestep time="61.00"/>
    <timestep time="62.00"/>
    <timestep time="63.00"/>
    <timestep time="64.00"/>
    <timestep time="65.00"/>
    <timestep time="66.00"/>
    <timestep time="67.00"/>
    <timestep time="68.00"/>
    <timestep time="69.00"/>
    <timestep time="70.00"/>
    <timestep time="71.00"/>
    <timestep time="72.00"/>
    <timestep time="73.00"/>
    <timestep time="74.00"/>
    <timestep time="75.00"/>
    <timestep time="76.00"/>
    <timestep time="77.00"/>
    <timestep time="78.00"/>
    <timestep time="79.00"/>
    <timestep time="80.00"/>
    <timestep time="81.00"/>
    <timestep time="82.00"/>
    <timestep time="83.00"/>
    <timestep time="84.00"/>
    <timestep time="85.00"/>
    <timestep time="86.00"/>
    <timestep time="87.00"/>
    <timestep time="88.00"/>
    <timestep time="89.00"/>
    <timestep time="90.00"/>
    <timestep time="91.00"/>
    <timestep time="92.00"/>
    <timestep time="93.00"/>
    <timestep time="94.00"/>
    <timestep time="95.00"/>
    <timestep time="96.00"/>
    <timestep time="97.00"/>
    <timestep time="98.00"/>
    <timestep time="99.00"/>
    <timestep time="100.00"/>
    <timestep time="101.00"/>
    <timestep time="102.00"/>
    <timestep time="103.00"/>
    <timestep time="104.00"/>
    <timestep time="105.00"/>
    <timestep time="106.00"/>
    <timestep time="107.00"/>
    <timestep time="108.00"/>
    <timestep time="109.00"/>
    <timestep time="110.00"/>
    <timestep time="111.00"/>
    <timestep time="112.00"/>
    <timestep time="113.00"/>
    <timestep time="114.00"/>
    <timestep time="115.00"/>
    <timestep time="116.00"/>
    <timestep time="117.00"/>
    <timestep time="118.00"/>
    <timestep time="119.00"/>
    <timestep time="120.00"/>
    <timestep time="121.00"/>
    <timestep time="122.00"/>
    <timestep time="123.00"/>
    <timestep time="124.00"/>
    <timestep time="125.00"/>
    <timestep time="126.00"/>
    <timestep time="127.00"/>
    <timestep time="128.00"/>
    <timestep time="129.00"/>
    <timestep time="130.00"/>
    <timestep time="131.00"/>
    <timestep time="132.00"/>
    <timestep time="133.00"/>
    <timestep time="134.00"/>
    <timestep time="135.00"/>
    <timestep time="136.00"/>
    <timestep time="137.00"/>
    <timestep time="138.00"/>
    <timestep time="139.00"/>
    <timestep time="140.00"/>
    <timestep time="141.00"/>
    <timestep time="142.00"/>
    <timestep time="143.00"/>
    <timestep time="144.00"/>
    <timestep time="145.00"/>
    <timestep time="146.00"/>
    <timestep time="147.00"/>
    <timestep time="148.00"/>
    <timestep time="149.00"/>
    <timestep time="150.00"/>
    <timestep time="151.00"/>
    <timestep time="152.00"/>
    <timestep time="153.00"/>
    <timestep time="154.00"/>
    <timestep time="155.00"/>
    <timestep time="156.00"/>
    <timestep time="157.00"/>
    <timestep time="158.00"/>
    <timestep time="159.00"/>
    <timestep time="160.00"/>
    <timestep time="161.00"/>
    <timestep time="162.00"/>
    <timestep time="163.00"/>
    <timestep time="164.00"/>
    <timestep time="165.00"/>
    <timestep time="166.00"/>
    <timestep time="167.00"/>
    <timestep time="168.00"/>
    <timestep time="169.00"/>
    <timestep time="170.00"/>
    <timestep time="171.00"/>
    <timestep time="172.00"/>
    <timestep time="173.00"/>
    <timestep time="174.00"/>
    <timestep time="175.00"/>
    <timestep time="176.00"/>
    <timestep time="177.00"/>
    <timestep time="178.00"/>
    <timestep time="179.00"/>
    <timestep time="180.00"/>
    <timestep time="181.00"/>
    <timestep time="182.00"/>
    <timestep time="183.00"/>
    <timestep time="184.00"/>
    <timestep time="185.00"/>
    <timestep time="186.00"/>
    <timestep time="187.00"/>
    <timestep time="188.00"/>
    <timestep time="189.00"/>
    <timestep time="190.00"/>
    <timestep time="191.00"/>
    <timestep time="192.00"/>
    <timestep time="193.00"/>
    <timestep time="194.00"/>
    <timestep time="195.00"/>
    <timestep time="196.00"/>
    <timestep time="197.00"/>
    <timestep time="198.00"/>
    <timestep time="199.00"/>
    <timestep time="200.00"/>
    <timestep time="201.00"/>
    <timestep time="202.00"/>
    <timestep time="203.00"/>
    <timestep time="204.00"/>
    <timestep time="205.00"/>
    <timestep time="206.00"/>
    <timestep time="207.00"/>
    <timestep time="208.00"/>
    <timestep time="209.00"/>
    <timestep time="210.00"/>
    <timestep time="211.00"/>
    <timestep time="212.00"/>
    <timestep time="213.00"/>
    <timestep time="214.00"/>
    <timestep time="215.00"/>
    <timestep time="216.00"/>
    <timestep time="217.00"/>
    <timestep time="218.00"/>
    <timestep time="219.00"/>
    <timestep time="220.00"/>
    <timestep time="221.00"/>
    <timestep time="222.00"/>
    <timestep time="223.00"/>
    <timestep time="224.00"/>
    <timestep time="225.00"/>
    <timestep time="226.00"/>
    <timestep time="227.00"/>
    <timestep time="228.00"/>
    <timestep time="229.00"/>
    <timestep time="230.00"/>
    <timestep time="231.00"/>
    <timestep time="232.00"/>
    <timestep time="233.00"/>
    <timestep time="234.00"/>
    <timestep time="235.00"/>
    <timestep time="236.00"/>
    <timestep time="237.00"/>
    <timestep time="238.00"/>
    <timestep time="239.00"/>
    <timestep time="240.00"/>
    <timestep time="241.00"/>
    <timestep time="242.00"/>
    <timestep time="243.00"/>
    <timestep time="244.00"/>
    <timestep time="245.00"/>
    <timestep time="246.00"/>
    <timestep time="247.00"/>
    <timestep time="248.00"/>
    <timestep time="249.00"/>
    <timestep time="250.00"/>
    <timestep time="251.00"/>
    <timestep time="252.00"/>
    <timestep time="253.00"/>
    <timestep time="254.00"/>
    <timestep time="255.00"/>
    <timestep time="256.00"/>
    <timestep time="257.00"/>
    <timestep time="258.00"/>
    <timestep time="259.00"/>
    <timestep time="260.00"/>
    <timestep time="261.00"/>
    <timestep time="262.00"/>
    <timestep time="263.00"/>
    <timestep time="264.00"/>
    <timestep time="265.00"/>
    <timestep time="266.00"/>
    <timestep time="267.00"/>
    <timestep time="268.00"/>
    <timestep time="269.00"/>
    <timestep time="270.00"/>
    <timestep time="271.00"/>
    <timestep time="272.00"/>
    <timestep time="273.00"/>
    <timestep time="274.00"/>
    <timestep time="275.00"/>
    <timestep time="276.00"/>
    <timestep time="277.00"/>
    <timestep time="278.00"/>
    <timestep time="279.00"/>
    <timestep time="280.00"/>
    <timestep time="281.00"/>
    <timestep time="282.00"/>
    <timestep time="283.00"/>
    <timestep time="284.00"/>
    <timestep time="285.00"/>
    <timestep time="286.00"/>
    <timestep time="287.00"/>
    <timestep time="288.00"/>
    <timestep time="289.00"/>
    <timestep time="290.00"/>
    <timestep time="291.00"/>
    <timestep time="292.00"/>
    <timestep time="293.00"/>
    <timestep time="294.00"/>
    <timestep time="295.00"/>
    <timestep time="296.00"/>
    <timestep time="297.00"/>
    <timestep time="298.00"/>
    <timestep time="299.00"/>
    <timestep time="300.00"/>
    <timestep time="301.00"/>
    <timestep time="302.00"/>
    <timestep time="303.00"/>
    <timestep time="304.00"/>
    <timestep time="305.00"/>
    <timestep time="306.00"/>
    <timestep time="307.00"/>
    <timestep time="308.00"/>
    <timestep time="309.00"/>
    <timestep time="310.00"/>
    <timestep time="311.00"/>
    <timestep time="312.00"/>
    <timestep time="313.00"/>
    <timestep time="314.00"/>
    <timestep time="315.00"/>
    <timestep time="316.00"/>
    <timestep time="317.00"/>
    <timestep time="318.00"/>
    <timestep time="319.00"/>
    <timestep time="320.00"/>
    <timestep time="321.00"/>
    <timestep time="322.00"/>
    <timestep time="323.00"/>
    <timestep time="324.00"/>
    <timestep time="325.00"/>
    <timestep time="326.00"/>
    <timestep time="327.00"/>
    <timestep time="328.00"/>
    <timestep time="329.00"/>
    <timestep time="330.00"/>
    <timestep time="331.00"/>
    <timestep time="332.00"/>
    <timestep time="333.00"/>
    <timestep time="334.00"/>
    <timestep time="335.00"/>
    <timestep time="336.00"/>
    <timestep time="337.00"/>
    <timestep time="338.00"/>
    <timestep time="339.00"/>
    <timestep time="340.00"/>
    <timestep time="341.00"/>
    <timestep time="342.00"/>
    <timestep time="343.00"/>
    <timestep time="344.00"/>
    <timestep time="345.00"/>
    <timestep time="346.00"/>
    <timestep time="347.00"/>
    <timestep time="348.00"/>
    <timestep time="349.00"/>
    <timestep time="350.00"/>
    <timestep time="351.00"/>
    <timestep time="352.00"/>
    <timestep time="353.00"/>
    <timestep time="354.00"/>
    <timestep time="355.00"/>
    <timestep time="356.00"/>
    <timestep time="357.00"/>
    <timestep time="358.00"/>
    <timestep time="359.00"/>
    <timestep time="360.00"/>
    <timestep time="361.00"/>
    <timestep time="362.00"/>
    <timestep time="363.00"/>
    <timestep time="364.00"/>
    <timestep time="365.00"/>
    <timestep time="366.00"/>
    <timestep time="367.00"/>
    <timestep time="368.00"/>
    <timestep time="369.00"/>
    <timestep time="370.00"/>
    <timestep time="371.00"/>
    <timestep time="372.00"/>
    <timestep time="373.00"/>
    <timestep time="374.00"/>
    <timestep time="375.00"/>
    <timestep time="376.00"/>
    <timestep time="377.00"/>
    <timestep time="378.00"/>
    <timestep time="379.00"/>
    <timestep time="380.00"/>
    <timestep time="381.00"/>
    <timestep time="382.00"/>
    <timestep time="383.00"/>
    <timestep time="384.00"/>
    <timestep time="385.00"/>
    <timestep time="386.00"/>
    <timestep time="387.00"/>
    <timestep time="388.00"/>
    <timestep time="389.00"/>
    <timestep time="390.00"/>
    <timestep time="391.00"/>
    <timestep time="392.00"/>
    <timestep time="393.00"/>
    <timestep time="394.00"/>
    <timestep time="395.00"/>
    <timestep time="396.00"/>
    <timestep time="397.00"/>
    <timestep time="398.00"/>
    <timestep time="399.00"/>
    <timestep time="400.00"/>
    <timestep time="401.00"/>
    <timestep time="402.00"/>
    <timestep time="403.00"/>
    <timestep time="404.00"/>
    <timestep time="405.00"/>
    <timestep time="406.00"/>
    <timestep time="407.00"/>
    <timestep time="408.00"/>
    <timestep time="409.00"/>
    <timestep time="410.00"/>
    <timestep time="411.00"/>
    <timestep time="412.00"/>
    <timestep time="413.00"/>
    <timestep time="414.00"/>
    <timestep time="415.00"/>
    <timestep time="416.00"/>
    <timestep time="417.00"/>
    <timestep time="418.00"/>
    <timestep time="419.00"/>
    <timestep time="420.00"/>
    <timestep time="421.00"/>
    <timestep time="422.00"/>
    <timestep time="423.00"/>
    <timestep time="424.00"/>
    <timestep time="425.00"/>
    <timestep time="426.00"/>
    <timestep time="427.00"/>
    <timestep time="428.00"/>
    <timestep time="429.00"/>
    <timestep time="430.00"/>
    <timestep time="431.00"/>
    <timestep time="432.00"/>
    <timestep time="433.00"/>
    <timestep time="434.00"/>
    <timestep time="435.00"/>
    <timestep time="436.00"/>
    <timestep time="437.00"/>
    <timestep time="438.00"/>
    <timestep time="439.00"/>
    <timestep time="440.00"/>
    <timestep time="441.00"/>
    <timestep time="442.00"/>
    <timestep time="443.00"/>
    <timestep time="444.00"/>
    <timestep time="445.00"/>
    <timestep time="446.00"/>
    <timestep time="447.00"/>
    <timestep time="448.00"/>
    <timestep time="449.00"/>
    <timestep time="450.00"/>
    <timestep time="451.00"/>
    <timestep time="452.00"/>
    <timestep time="453.00"/>
    <timestep time="454.00"/>
    <timestep time="455.00"/>
    <timestep time="456.00"/>
    <timestep time="457.00"/>
    <timestep time="458.00"/>
    <timestep time="459.00"/>
    <timestep time="460.00"/>
    <timestep time="461.00"/>
    <timestep time="462.00"/>
    <timestep time="463.00"/>
    <timestep time="464.00"/>
    <timestep time="465.00"/>
    <timestep time="466.00"/>
    <timestep time="467.00"/>
    <timestep time="468.00"/>
    <timestep time="469.00"/>
    <timestep time="470.00"/>
    <timestep time="471.00"/>
    <timestep time="472.00"/>
    <timestep time="473.00"/>
    <timestep time="474.00"/>
    <timestep time="475.00"/>
    <timestep time="476.00"/>
    <timestep time="477.00"/>
    <timestep time="478.00"/>
    <timestep time="479.00"/>
    <timestep time="480.00"/>
    <timestep time="481.00"/>
    <timestep time="482.00"/>
    <timestep time="483.00"/>
    <timestep time="484.00"/>
    <timestep time="485.00"/>
    <timestep time="486.00"/>
    <timestep time="487.00"/>
    <timestep time="488.00"/>
    <timestep time="489.00"/>
    <timestep time="490.00"/>
    <timestep time="491.00"/>
    <timestep time="492.00"/>
    <timestep time="493.00"/>
    <timestep time="494.00"/>
    <timestep time="495.00"/>
    <timestep time="496.00"/>
    <timestep time="497.00"/>
    <timestep time="498.00"/>
    <timestep time="499.00"/>
    <timestep time="500.00"/>
    <timestep time="501.00"/>
    <timestep time="502.00"/>
    <timestep time="503.00"/>
    <timestep time="504.00"/>
    <timestep time="505.00"/>
    <timestep time="506.00"/>
    <timestep time="507.00"/>
    <timestep time="508.00"/>
    <timestep time="509.00"/>
    <timestep time="510.00"/>
    <timestep time="511.00"/>
    <timestep time="512.00"/>
    <timestep time="513.00"/>
    <timestep time="514.00"/>
    <timestep time="515.00"/>
    <timestep time="516.00"/>
    <timestep time="517.00"/>
    <timestep time="518.00"/>
    <timestep time="519.00"/>
    <timestep time="520.00"/>
    <timestep time="521.00"/>
    <timestep time="522.00"/>
    <timestep time="523.00"/>
    <timestep time="524.00"/>
    <timestep time="525.00"/>
    <timestep time="526.00"/>
    <timestep time="527.00"/>
    <timestep time="528.00"/>
    <timestep time="529.00"/>
    <timestep time="530.00"/>
    <timestep time="531.00"/>
    <timestep time="532.00"/>
    <timestep time="533.00"/>
    <timestep time="534.00"/>
    <timestep time="535.00"/>
    <timestep time="536.00"/>
    <timestep time="537.00"/>
    <timestep time="538.00"/>
    <timestep time="539.00"/>
    <timestep time="540.00"/>
    <timestep time="541.00"/>
    <timestep time="542.00"/>
    <timestep time="543.00"/>
    <timestep time="544.00"/>
    <timestep time="545.00"/>
    <timestep time="546.00"/>
    <timestep time="547.00"/>
    <timestep time="548.00"/>
    <timestep time="549.00"/>
    <timestep time="550.00"/>
    <timestep time="551.00"/>
    <timestep time="552.00"/>
    <timestep time="553.00"/>
    <timestep time="554.00"/>
    <timestep time="555.00"/>
    <timestep time="556.00"/>
    <timestep time="557.00"/>
    <timestep time="558.00"/>
    <timestep time="559.00"/>
    <timestep time="560.00"/>
    <timestep time="561.00"/>
    <timestep time="562.00"/>
    <timestep time="563.00"/>
    <timestep time="564.00"/>
    <timestep time="565.00"/>
    <timestep time="566.00"/>
    <timestep time="567.00"/>
    <timestep time="568.00"/>
    <timestep time="569.00"/>
    <timestep time="570.00"/>
    <timestep time="571.00"/>
    <timestep time="572.00"/>
    <timestep time="573.00"/>
    <timestep time="574.00"/>
    <timestep time="575.00"/>
    <timestep time="576.00"/>
    <timestep time="577.00"/>
    <timestep time="578.00"/>
    <timestep time="579.00"/>
    <timestep time="580.00"/>
    <timestep time="581.00"/>
    <timestep time="582.00"/>
    <timestep time="583.00"/>
    <timestep time="584.00"/>
    <timestep time="585.00"/>
    <timestep time="586.00"/>
    <timestep time="587.00"/>
    <timestep time="588.00"/>
    <timestep time="589.00"/>
    <timestep time="590.00"/>
    <timestep time="591.00"/>
    <timestep time="592.00"/>
    <timestep time="593.00"/>
    <timestep time="594.00"/>
    <timestep time="595.00"/>
    <timestep time="596.00"/>
    <timestep time="597.00"/>
    <timestep time="598.00"/>
    <timestep time="599.00"/>
    <timestep time="600.00"/>
    <timestep time="601.00"/>
    <timestep time="602.00"/>
    <timestep time="603.00"/>
    <timestep time="604.00"/>
    <timestep time="605.00"/>
    <timestep time="606.00"/>
    <timestep time="607.00"/>
    <timestep time="608.00"/>
    <timestep time="609.00"/>
    <timestep time="610.00"/>
    <timestep time="611.00"/>
    <timestep time="612.00"/>
    <timestep time="613.00"/>
    <timestep time="614.00"/>
    <timestep time="615.00"/>
    <timestep time="616.00"/>
    <timestep time="617.00"/>
    <timestep time="618.00"/>
    <timestep time="619.00"/>
    <timestep time="620.00"/>
    <timestep time="621.00"/>
    <timestep time="622.00"/>
    <timestep time="623.00"/>
    <timestep time="624.00"/>
    <timestep time="625.00"/>
    <timestep time="626.00"/>
    <timestep time="627.00"/>
    <timestep time="628.00"/>
    <timestep time="629.00"/>
    <timestep time="630.00"/>
    <timestep time="631.00"/>
    <timestep time="632.00"/>
    <timestep time="633.00"/>
    <timestep time="634.00"/>
    <timestep time="635.00"/>
    <timestep time="636.00"/>
    <timestep time="637.00"/>
    <timestep time="638.00"/>
    <timestep time="639.00"/>
    <timestep time="640.00"/>
    <timestep time="641.00"/>
    <timestep time="642.00"/>
    <timestep time="643.00"/>
    <timestep time="644.00"/>
    <timestep time="645.00"/>
    <timestep time="646.00"/>
    <timestep time="647.00"/>
    <timestep time="648.00"/>
    <timestep time="649.00"/>
    <timestep time="650.00"/>
    <timestep time="651.00"/>
    <timestep time="652.00"/>
    <timestep time="653.00"/>
    <timestep time="654.00"/>
    <timestep time="655.00"/>
    <timestep time="656.00"/>
    <timestep time="657.00"/>
    <timestep time="658.00"/>
    <timestep time="659.00"/>
    <timestep time="660.00"/>
    <timestep time="661.00"/>
    <timestep time="662.00"/>
    <timestep time="663.00"/>
    <timestep time="664.00"/>
    <timestep time="665.00"/>
    <timestep time="666.00"/>
    <timestep time="667.00"/>
    <timestep time="668.00"/>
    <timestep time="669.00"/>
    <timestep time="670.00"/>
    <timestep time="671.00"/>
    <timestep time="672.00"/>
    <timestep time="673.00"/>
    <timestep time="674.00"/>
    <timestep time="675.00"/>
    <timestep time="676.00"/>
    <timestep time="677.00"/>
    <timestep time="678.00"/>
    <timestep time="679.00"/>
    <timestep time="680.00"/>
    <timestep time="681.00"/>
    <timestep time="682.00"/>
    <timestep time="683.00"/>
    <timestep time="684.00"/>
    <timestep time="685.00"/>
    <timestep time="686.00"/>
    <timestep time="687.00"/>
    <timestep time="688.00"/>
    <timestep time="689.00"/>
    <timestep time="690.00"/>
    <timestep time="691.00"/>
    <timestep time="692.00"/>
    <timestep time="693.00"/>
    <timestep time="694.00"/>
    <timestep time="695.00"/>
    <timestep time="696.00"/>
    <timestep time="697.00"/>
    <timestep time="698.00"/>
    <timestep time="699.00"/>
    <timestep time="700.00"/>
    <timestep time="701.00"/>
    <timestep time="702.00"/>
    <timestep time="703.00"/>
    <timestep time="704.00"/>
    <timestep time="705.00"/>
    <timestep time="706.00"/>
    <timestep time="707.00"/>
    <timestep time="708.00"/>
    <timestep time="709.00"/>
    <timestep time="710.00"/>
    <timestep time="711.00"/>
    <timestep time="712.00"/>
    <timestep time="713.00"/>
    <timestep time="714.00"/>
    <timestep time="715.00"/>
    <timestep time="716.00"/>
    <timestep time="717.00"/>
    <timestep time="718.00"/>
    <timestep time="719.00"/>
    <timestep time="720.00"/>
    <timestep time="721.00"/>
    <timestep time="722.00"/>
    <timestep time="723.00"/>
    <timestep time="724.00"/>
    <timestep time="725.00"/>
    <timestep time="726.00"/>
    <timestep time="727.00"/>
    <timestep time="728.00"/>
    <timestep time="729.00"/>
    <timestep time="730.00"/>
    <timestep time="731.00"/>
    <timestep time="732.00"/>
    <timestep time="733.00"/>
    <timestep time="734.00"/>
    <timestep time="735.00"/>
    <timestep time="736.00"/>
    <timestep time="737.00"/>
    <timestep time="738.00"/>
    <timestep time="739.00"/>
    <timestep time="740.00"/>
    <timestep time="741.00"/>
    <timestep time="742.00"/>
    <timestep time="743.00"/>
    <timestep time="744.00"/>
    <timestep time="745.00"/>
    <timestep time="746.00"/>
    <timestep time="747.00"/>
    <timestep time="748.00"/>
    <timestep time="749.00"/>
    <timestep time="750.00"/>
    <timestep time="751.00"/>
    <timestep time="752.00"/>
    <timestep time="753.00"/>
    <timestep time="754.00"/>
    <timestep time="755.00"/>
    <timestep time="756.00"/>
    <timestep time="757.00"/>
    <timestep time="758.00"/>
    <timestep time="759.00"/>
    <timestep time="760.00"/>
    <timestep time="761.00"/>
    <timestep time="762.00"/>
    <timestep time="763.00"/>
    <timestep time="764.00"/>
    <timestep time="765.00"/>
    <timestep time="766.00"/>
    <timestep time="767.00"/>
    <timestep time="768.00"/>
    <timestep time="769.00"/>
    <timestep time="770.00"/>
    <timestep time="771.00"/>
    <timestep time="772.00"/>
    <timestep time="773.00"/>
    <timestep time="774.00"/>
    <timestep time="775.00"/>
    <timestep time="776.00"/>
    <timestep time="777.00"/>
    <timestep time="778.00"/>
    <timestep time="779.00"/>
    <timestep time="780.00"/>
    <timestep time="781.00"/>
    <timestep time="782.00"/>
    <timestep time="783.00"/>
    <timestep time="784.00"/>
    <timestep time="785.00"/>
    <timestep time="786.00"/>
    <timestep time="787.00"/>
    <timestep time="788.00"/>
    <timestep time="789.00"/>
    <timestep time="790.00"/>
    <timestep time="791.00"/>
    <timestep time="792.00"/>
    <timestep time="793.00"/>
    <timestep time="794.00"/>
    <timestep time="795.00"/>
    <timestep time="796.00"/>
    <timestep time="797.00"/>
    <timestep time="798.00"/>
    <timestep time="799.00"/>
    <timestep time="800.00"/>
    <timestep time="801.00"/>
    <timestep time="802.00"/>
    <timestep time="803.00"/>
    <timestep time="804.00"/>
    <timestep time="805.00"/>
    <timestep time="806.00"/>
    <timestep time="807.00"/>
    <timestep time="808.00"/>
    <timestep time="809.00"/>
    <timestep time="810.00"/>
    <timestep time="811.00"/>
    <timestep time="812.00"/>
    <timestep time="813.00"/>
    <timestep time="814.00"/>
    <timestep time="815.00"/>
    <timestep time="816.00"/>
    <timestep time="817.00">
        <vehicle id="veh121" x="1214.18" y="630.11" angle="85.06" type="veh_passenger" speed="12.33" pos="12.58" lane="461526152#0_1" slope="0.00"/>
        <vehicle id="veh130" x="1211.12" y="626.64" angle="85.06" type="veh_passenger" speed="10.81" pos="9.07" lane="461526152#0_0" slope="0.00"/>
        <vehicle id="veh140" x="1190.62" y="631.55" angle="165.20" type="veh_passenger" speed="0.04" pos="3.48" lane=":2264199819_8_0" slope="0.00"/>
        <vehicle id="veh146" x="1188.01" y="611.97" angle="174.88" type="veh_passenger" speed="0.00" pos="5.10" lane="-194069450#2_0" slope="0.00"/>
    </timestep>
    <timestep time="818.00">
        <vehicle id="veh121" x="1227.24" y="631.24" angle="85.06" type="veh_passenger" speed="13.13" pos="25.72" lane="461526152#0_1" slope="0.00"/>
        <vehicle id="veh130" x="1224.13" y="627.76" angle="85.06" type="veh_passenger" speed="13.03" pos="22.10" lane="461526152#0_0" slope="0.00"/>
        <vehicle id="veh133" x="1148.17" y="623.01" angle="85.88" type="veh_passenger" speed="14.79" pos="150.83" lane="342968607#0_1" slope="0.00"/>
        <vehicle id="veh140" x="1192.11" y="630.29" angle="148.57" type="veh_passenger" speed="1.95" pos="1.82" lane=":2264199819_11_0" slope="0.00"/>
        <vehicle id="veh146" x="1188.21" y="609.70" angle="174.88" type="veh_passenger" speed="2.28" pos="7.38" lane="-194069450#2_0" slope="0.00"/>
    </timestep>
    <timestep time="819.00">
        <vehicle id="veh133" x="1162.61" y="624.05" angle="85.88" type="veh_passenger" speed="14.48" pos="165.31" lane="342968607#0_1" slope="0.00"/>
        <vehicle id="veh140" x="1195.56" y="629.03" angle="115.17" type="veh_passenger" speed="3.75" pos="5.57" lane=":2264199819_11_0" slope="0.00"/>
        <vehicle id="veh146" x="1188.55" y="605.36" angle="175.40" type="veh_passenger" speed="4.35" pos="11.73" lane="-194069450#2_0" slope="0.00"/>
    </timestep>
    <timestep time="820.00">
        <vehicle id="veh133" x="1172.56" y="624.77" angle="85.88" type="veh_passenger" speed="9.98" pos="175.28" lane="342968607#0_1" slope="0.00"/>
        <vehicle id="veh140" x="1200.91" y="628.93" angle="90.07" type="veh_passenger" speed="5.38" pos="10.95" lane=":2264199819_11_0" slope="0.00"/>
        <vehicle id="veh146" x="1189.05" y="599.05" angle="175.46" type="veh_passenger" speed="6.32" pos="18.06" lane="-194069450#2_0" slope="0.00"/>
    </timestep>
    <timestep time="821.00">
        <vehicle id="veh133" x="1178.02" y="625.19" angle="85.56" type="veh_passenger" speed="5.48" pos="180.76" lane="342968607#0_1" slope="0.00"/>
        <vehicle id="veh139" x="1199.87" y="543.47" angle="354.75" type="veh_passenger" speed="13.76" pos="50.79" lane="882389497_0" slope="0.00"/>
        <vehicle id="veh140" x="1208.39" y="629.61" angle="85.03" type="veh_passenger" speed="7.53" pos="6.76" lane="461526152#0_1" slope="0.00"/>
        <vehicle id="veh146" x="1189.71" y="590.84" angle="175.46" type="veh_passenger" speed="8.24" pos="26.30" lane="-194069450#2_0" slope="0.00"/>
    </timestep>
    <timestep time="822.00">
        <vehicle id="veh133" x="1179.97" y="625.35" angle="85.36" type="veh_passenger" speed="1.95" pos="182.71" lane="342968607#0_1" slope="0.00"/>
        <vehicle id="veh139" x="1201.65" y="556.53" angle="24.48" type="veh_passenger" speed="13.32" pos="6.99" lane=":2045820585_0_0" slope="0.00"/>
        <vehicle id="veh146" x="1190.53" y="580.47" angle="175.46" type="veh_passenger" speed="10.40" pos="36.69" lane="-194069450#2_0" slope="0.00"/>
    </timestep>
    <timestep time="823.00">
        <vehicle id="veh139" x="1200.92" y="570.41" angle="355.82" type="veh_passenger" speed="13.86" pos="12.51" lane="194069450#0_0" slope="0.00"/>
        <vehicle id="veh146" x="1191.46" y="568.11" angle="175.84" type="veh_passenger" speed="12.39" pos="49.09" lane="-194069450#2_0" slope="0.00"/>
    </timestep>
    <timestep time="824.00">
        <vehicle id="veh139" x="1199.81" y="584.79" angle="355.47" type="veh_passenger" speed="14.42" pos="26.93" lane="194069450#0_0" slope="0.00"/>
        <vehicle id="veh146" x="1193.62" y="553.99" angle="162.45" type="veh_passenger" speed="14.49" pos="3.59" lane=":2045820585_2_0" slope="0.00"/>
    </timestep>
    <timestep time="825.00">